HEADER
"PSFversion" "1.00"
"M0n" "smic18mmrf_n33_spectre"
"V4n V3n V0n" "analogLib_vdc_spectre"
"M1n" "smic18mmrf_p33_spectre"
