HEADER
"PSFversion" "1.00"
"__NEXT_FILE__" "mos_test"
