HEADER
"PSFversion" "1.00"
"PM0n" "smic18mmrf_p18_spectre"
"NM1n" "smic18mmrf_n18_spectre"
"inv" ":1v"
"outv" ":2v"
