HEADER
"PSFversion" "1.00"
"simulator" "spectre"
"version" "20.1.0.298.isr9"
"date" "11:30:51 AM, Mon Dec 4, 2023"
"design" "// Generated for: spectre"
"analysis type" "info"
"analysis name" "designParamVals"
"analysis description" "Circuit Information"
"xVecSorted" "unknown"
"tolerance.relative" 0.00100000
TYPE
"top-level" STRUCT(
"temp" FLOAT DOUBLE
"tnom" FLOAT DOUBLE
"time" FLOAT DOUBLE
"vgs" FLOAT DOUBLE
"dtox_n18" FLOAT DOUBLE
"dxl_n18" FLOAT DOUBLE
"dxw_n18" FLOAT DOUBLE
"dvth_n18" FLOAT DOUBLE
"dcj_n18" FLOAT DOUBLE
"dcjsw_n18" FLOAT DOUBLE
"dcjswg_n18" FLOAT DOUBLE
"dcgdo_n18" FLOAT DOUBLE
"dcgso_n18" FLOAT DOUBLE
"dpvth0_n18" FLOAT DOUBLE
"dtox_p18" FLOAT DOUBLE
"dxl_p18" FLOAT DOUBLE
"dxw_p18" FLOAT DOUBLE
"dvth_p18" FLOAT DOUBLE
"dcj_p18" FLOAT DOUBLE
"dcjsw_p18" FLOAT DOUBLE
"dcjswg_p18" FLOAT DOUBLE
"dcgdo_p18" FLOAT DOUBLE
"dcgso_p18" FLOAT DOUBLE
"dpvth0_p18" FLOAT DOUBLE
"dtox_n33" FLOAT DOUBLE
"dxl_n33" FLOAT DOUBLE
"dxw_n33" FLOAT DOUBLE
"dvth_n33" FLOAT DOUBLE
"dcj_n33" FLOAT DOUBLE
"dcjsw_n33" FLOAT DOUBLE
"dcjswg_n33" FLOAT DOUBLE
"dcgdo_n33" FLOAT DOUBLE
"dcgso_n33" FLOAT DOUBLE
"dpvth0_n33" FLOAT DOUBLE
"dtox_p33" FLOAT DOUBLE
"dxl_p33" FLOAT DOUBLE
"dxw_p33" FLOAT DOUBLE
"dvth_p33" FLOAT DOUBLE
"dcj_p33" FLOAT DOUBLE
"dcjsw_p33" FLOAT DOUBLE
"dcjswg_p33" FLOAT DOUBLE
"dcgdo_p33" FLOAT DOUBLE
"dcgso_p33" FLOAT DOUBLE
"dpvth0_p33" FLOAT DOUBLE
"dtox_nnt18" FLOAT DOUBLE
"dxl_nnt18" FLOAT DOUBLE
"dxw_nnt18" FLOAT DOUBLE
"dvth_nnt18" FLOAT DOUBLE
"dcj_nnt18" FLOAT DOUBLE
"dcjsw_nnt18" FLOAT DOUBLE
"dcjswg_nnt18" FLOAT DOUBLE
"dcgdo_nnt18" FLOAT DOUBLE
"dcgso_nnt18" FLOAT DOUBLE
"dpvth0_nnt18" FLOAT DOUBLE
"dtox_nnt33" FLOAT DOUBLE
"dxl_nnt33" FLOAT DOUBLE
"dxw_nnt33" FLOAT DOUBLE
"dvth_nnt33" FLOAT DOUBLE
"dcj_nnt33" FLOAT DOUBLE
"dcjsw_nnt33" FLOAT DOUBLE
"dcjswg_nnt33" FLOAT DOUBLE
"dcgdo_nnt33" FLOAT DOUBLE
"dcgso_nnt33" FLOAT DOUBLE
"dpvth0_nnt33" FLOAT DOUBLE
"dtox_nmvt18" FLOAT DOUBLE
"dxl_nmvt18" FLOAT DOUBLE
"dxw_nmvt18" FLOAT DOUBLE
"dvth_nmvt18" FLOAT DOUBLE
"dcj_nmvt18" FLOAT DOUBLE
"dcjsw_nmvt18" FLOAT DOUBLE
"dcjswg_nmvt18" FLOAT DOUBLE
"dcgdo_nmvt18" FLOAT DOUBLE
"dcgso_nmvt18" FLOAT DOUBLE
"dpvth0_nmvt18" FLOAT DOUBLE
"dtox_pmvt18" FLOAT DOUBLE
"dxl_pmvt18" FLOAT DOUBLE
"dxw_pmvt18" FLOAT DOUBLE
"dvth_pmvt18" FLOAT DOUBLE
"dcj_pmvt18" FLOAT DOUBLE
"dcjsw_pmvt18" FLOAT DOUBLE
"dcjswg_pmvt18" FLOAT DOUBLE
"dcgdo_pmvt18" FLOAT DOUBLE
"dcgso_pmvt18" FLOAT DOUBLE
"dpvth0_pmvt18" FLOAT DOUBLE
"dtox_nmvt33" FLOAT DOUBLE
"dxl_nmvt33" FLOAT DOUBLE
"dxw_nmvt33" FLOAT DOUBLE
"dvth_nmvt33" FLOAT DOUBLE
"dcj_nmvt33" FLOAT DOUBLE
"dcjsw_nmvt33" FLOAT DOUBLE
"dcjswg_nmvt33" FLOAT DOUBLE
"dcgdo_nmvt33" FLOAT DOUBLE
"dcgso_nmvt33" FLOAT DOUBLE
"dpvth0_nmvt33" FLOAT DOUBLE
"drsh_rndif" FLOAT DOUBLE
"drsh_rpdif" FLOAT DOUBLE
"drsh_rnpo" FLOAT DOUBLE
"drsh_rnpo_3t" FLOAT DOUBLE
"drsh_rppo" FLOAT DOUBLE
"drsh_rppo_3t" FLOAT DOUBLE
"drsh_rnwsti" FLOAT DOUBLE
"drsh_rnwaa" FLOAT DOUBLE
"drsh_rndifsab" FLOAT DOUBLE
"drsh_rpdifsab" FLOAT DOUBLE
"drsh_rnposab" FLOAT DOUBLE
"drsh_rnposab_3t" FLOAT DOUBLE
"drsh_rpposab" FLOAT DOUBLE
"drsh_rpposab_3t" FLOAT DOUBLE
"drsh_rm1" FLOAT DOUBLE
"drsh_rm2" FLOAT DOUBLE
"drsh_rm3" FLOAT DOUBLE
"drsh_rm4" FLOAT DOUBLE
"drsh_rm5" FLOAT DOUBLE
"drsh_rm6" FLOAT DOUBLE
"drsh_rpdifsab_nstd" FLOAT DOUBLE
"drsh_rnposab_nstd" FLOAT DOUBLE
"drsh_rnposab_nstd_3t" FLOAT DOUBLE
"drsh_rndifsab_nstd" FLOAT DOUBLE
"drsh_rpposab_nstd" FLOAT DOUBLE
"drsh_rpposab_nstd_3t" FLOAT DOUBLE
"drsh_rhrpo" FLOAT DOUBLE
"drsh_rhrpo_3t" FLOAT DOUBLE
"ddw_rndif" FLOAT DOUBLE
"ddw_rpdif" FLOAT DOUBLE
"ddw_rnpo" FLOAT DOUBLE
"ddw_rnpo_3t" FLOAT DOUBLE
"ddw_rppo" FLOAT DOUBLE
"ddw_rppo_3t" FLOAT DOUBLE
"ddw_rnwsti" FLOAT DOUBLE
"ddw_rnwaa" FLOAT DOUBLE
"ddw_rndifsab" FLOAT DOUBLE
"ddw_rpdifsab" FLOAT DOUBLE
"ddw_rnposab" FLOAT DOUBLE
"ddw_rnposab_3t" FLOAT DOUBLE
"ddw_rpposab" FLOAT DOUBLE
"ddw_rpposab_3t" FLOAT DOUBLE
"ddw_rm1" FLOAT DOUBLE
"ddw_rm2" FLOAT DOUBLE
"ddw_rm3" FLOAT DOUBLE
"ddw_rm4" FLOAT DOUBLE
"ddw_rm5" FLOAT DOUBLE
"ddw_rm6" FLOAT DOUBLE
"ddw_rpdifsab_nstd" FLOAT DOUBLE
"ddw_rnposab_nstd" FLOAT DOUBLE
"ddw_rnposab_nstd_3t" FLOAT DOUBLE
"ddw_rndifsab_nstd" FLOAT DOUBLE
"ddw_rpposab_nstd" FLOAT DOUBLE
"ddw_rpposab_nstd_3t" FLOAT DOUBLE
"ddw_rhrpo" FLOAT DOUBLE
"ddw_rhrpo_3t" FLOAT DOUBLE
"dmim" FLOAT DOUBLE
"dbf_pnp18a100" FLOAT DOUBLE
"dis_pnp18a100" FLOAT DOUBLE
"dnf_pnp18a100" FLOAT DOUBLE
"dbf_pnp18a25" FLOAT DOUBLE
"dis_pnp18a25" FLOAT DOUBLE
"dnf_pnp18a25" FLOAT DOUBLE
"dbf_pnp18a4" FLOAT DOUBLE
"dis_pnp18a4" FLOAT DOUBLE
"dnf_pnp18a4" FLOAT DOUBLE
"dcje_pnp18a100" FLOAT DOUBLE
"dcje_pnp18a25" FLOAT DOUBLE
"dcje_pnp18a4" FLOAT DOUBLE
"dcjc_pnp18a100" FLOAT DOUBLE
"dcjc_pnp18a25" FLOAT DOUBLE
"dcjc_pnp18a4" FLOAT DOUBLE
"dbf_npn18a100" FLOAT DOUBLE
"dis_npn18a100" FLOAT DOUBLE
"dnf_npn18a100" FLOAT DOUBLE
"dbf_npn18a25" FLOAT DOUBLE
"dis_npn18a25" FLOAT DOUBLE
"dnf_npn18a25" FLOAT DOUBLE
"dbf_npn18a4" FLOAT DOUBLE
"dis_npn18a4" FLOAT DOUBLE
"dnf_npn18a4" FLOAT DOUBLE
"dcje_npn18a100" FLOAT DOUBLE
"dcje_npn18a25" FLOAT DOUBLE
"dcje_npn18a4" FLOAT DOUBLE
"dcjc_npn18a100" FLOAT DOUBLE
"dcjc_npn18a25" FLOAT DOUBLE
"dcjc_npn18a4" FLOAT DOUBLE
"dbf_pnp33a100" FLOAT DOUBLE
"dis_pnp33a100" FLOAT DOUBLE
"dnf_pnp33a100" FLOAT DOUBLE
"dbf_pnp33a25" FLOAT DOUBLE
"dis_pnp33a25" FLOAT DOUBLE
"dnf_pnp33a25" FLOAT DOUBLE
"dbf_pnp33a4" FLOAT DOUBLE
"dis_pnp33a4" FLOAT DOUBLE
"dnf_pnp33a4" FLOAT DOUBLE
"dcje_pnp33a100" FLOAT DOUBLE
"dcje_pnp33a25" FLOAT DOUBLE
"dcje_pnp33a4" FLOAT DOUBLE
"dcjc_pnp33a100" FLOAT DOUBLE
"dcjc_pnp33a25" FLOAT DOUBLE
"dcjc_pnp33a4" FLOAT DOUBLE
"dbf_npn33a100" FLOAT DOUBLE
"dis_npn33a100" FLOAT DOUBLE
"dnf_npn33a100" FLOAT DOUBLE
"dbf_npn33a25" FLOAT DOUBLE
"dis_npn33a25" FLOAT DOUBLE
"dnf_npn33a25" FLOAT DOUBLE
"dbf_npn33a4" FLOAT DOUBLE
"dis_npn33a4" FLOAT DOUBLE
"dnf_npn33a4" FLOAT DOUBLE
"dcje_npn33a100" FLOAT DOUBLE
"dcje_npn33a25" FLOAT DOUBLE
"dcje_npn33a4" FLOAT DOUBLE
"dcjc_npn33a100" FLOAT DOUBLE
"dcjc_npn33a25" FLOAT DOUBLE
"dcjc_npn33a4" FLOAT DOUBLE
"dtox_pvar18" FLOAT DOUBLE
"dvth_pvar18" FLOAT DOUBLE
"dtox_pvar33" FLOAT DOUBLE
"dvth_pvar33" FLOAT DOUBLE
"dtox_n18_rf" FLOAT DOUBLE
"dxl_n18_rf" FLOAT DOUBLE
"dxw_n18_rf" FLOAT DOUBLE
"dvth_n18_rf" FLOAT DOUBLE
"dcj_n18_rf" FLOAT DOUBLE
"dcjsw_n18_rf" FLOAT DOUBLE
"dpvth0_n18_rf" FLOAT DOUBLE
"dcgdo_n18_rf" FLOAT DOUBLE
"dcgso_n18_rf" FLOAT DOUBLE
"dtox_p18_rf" FLOAT DOUBLE
"dxl_p18_rf" FLOAT DOUBLE
"dxw_p18_rf" FLOAT DOUBLE
"dvth_p18_rf" FLOAT DOUBLE
"dcj_p18_rf" FLOAT DOUBLE
"dcjsw_p18_rf" FLOAT DOUBLE
"dpvth0_p18_rf" FLOAT DOUBLE
"dcgdo_p18_rf" FLOAT DOUBLE
"dcgso_p18_rf" FLOAT DOUBLE
"dtox_n33_rf" FLOAT DOUBLE
"dxl_n33_rf" FLOAT DOUBLE
"dxw_n33_rf" FLOAT DOUBLE
"dvth_n33_rf" FLOAT DOUBLE
"dcj_n33_rf" FLOAT DOUBLE
"dcjsw_n33_rf" FLOAT DOUBLE
"dpvth0_n33_rf" FLOAT DOUBLE
"dcgdo_n33_rf" FLOAT DOUBLE
"dcgso_n33_rf" FLOAT DOUBLE
"dtox_p33_rf" FLOAT DOUBLE
"dxl_p33_rf" FLOAT DOUBLE
"dxw_p33_rf" FLOAT DOUBLE
"dvth_p33_rf" FLOAT DOUBLE
"dcj_p33_rf" FLOAT DOUBLE
"dcjsw_p33_rf" FLOAT DOUBLE
"dpvth0_p33_rf" FLOAT DOUBLE
"dcgdo_p33_rf" FLOAT DOUBLE
"dcgso_p33_rf" FLOAT DOUBLE
"drndifsab_rf" FLOAT DOUBLE
"drpdifsab_rf" FLOAT DOUBLE
"drnposab_rf" FLOAT DOUBLE
"drpposab_rf" FLOAT DOUBLE
"drhrpo_rf" FLOAT DOUBLE
"dmim1_rf" FLOAT DOUBLE
) PROP(
"key" "parameters"
)
VALUE
"top-level" "top-level" (
2.700000000000000e+01
2.700000000000000e+01
0.000000000000000e+00
2.000000000000000e+00
0.000000000000000e+00
0.000000000000000e+00
0.000000000000000e+00
0.000000000000000e+00
0.000000000000000e+00
0.000000000000000e+00
0.000000000000000e+00
0.000000000000000e+00
0.000000000000000e+00
0.000000000000000e+00
0.000000000000000e+00
0.000000000000000e+00
0.000000000000000e+00
0.000000000000000e+00
0.000000000000000e+00
0.000000000000000e+00
0.000000000000000e+00
0.000000000000000e+00
0.000000000000000e+00
0.000000000000000e+00
0.000000000000000e+00
0.000000000000000e+00
0.000000000000000e+00
0.000000000000000e+00
0.000000000000000e+00
0.000000000000000e+00
0.000000000000000e+00
0.000000000000000e+00
0.000000000000000e+00
0.000000000000000e+00
0.000000000000000e+00
0.000000000000000e+00
0.000000000000000e+00
0.000000000000000e+00
0.000000000000000e+00
0.000000000000000e+00
0.000000000000000e+00
0.000000000000000e+00
0.000000000000000e+00
0.000000000000000e+00
0.000000000000000e+00
0.000000000000000e+00
0.000000000000000e+00
0.000000000000000e+00
0.000000000000000e+00
0.000000000000000e+00
0.000000000000000e+00
0.000000000000000e+00
0.000000000000000e+00
0.000000000000000e+00
0.000000000000000e+00
0.000000000000000e+00
0.000000000000000e+00
0.000000000000000e+00
0.000000000000000e+00
0.000000000000000e+00
0.000000000000000e+00
0.000000000000000e+00
0.000000000000000e+00
0.000000000000000e+00
0.000000000000000e+00
0.000000000000000e+00
0.000000000000000e+00
0.000000000000000e+00
0.000000000000000e+00
0.000000000000000e+00
0.000000000000000e+00
0.000000000000000e+00
0.000000000000000e+00
0.000000000000000e+00
0.000000000000000e+00
0.000000000000000e+00
0.000000000000000e+00
0.000000000000000e+00
0.000000000000000e+00
0.000000000000000e+00
0.000000000000000e+00
0.000000000000000e+00
0.000000000000000e+00
0.000000000000000e+00
0.000000000000000e+00
0.000000000000000e+00
0.000000000000000e+00
0.000000000000000e+00
0.000000000000000e+00
0.000000000000000e+00
0.000000000000000e+00
0.000000000000000e+00
0.000000000000000e+00
0.000000000000000e+00
0.000000000000000e+00
0.000000000000000e+00
0.000000000000000e+00
0.000000000000000e+00
0.000000000000000e+00
0.000000000000000e+00
0.000000000000000e+00
0.000000000000000e+00
0.000000000000000e+00
0.000000000000000e+00
0.000000000000000e+00
0.000000000000000e+00
0.000000000000000e+00
0.000000000000000e+00
0.000000000000000e+00
0.000000000000000e+00
0.000000000000000e+00
0.000000000000000e+00
0.000000000000000e+00
0.000000000000000e+00
0.000000000000000e+00
0.000000000000000e+00
0.000000000000000e+00
0.000000000000000e+00
0.000000000000000e+00
0.000000000000000e+00
0.000000000000000e+00
0.000000000000000e+00
0.000000000000000e+00
0.000000000000000e+00
0.000000000000000e+00
0.000000000000000e+00
0.000000000000000e+00
0.000000000000000e+00
0.000000000000000e+00
0.000000000000000e+00
0.000000000000000e+00
0.000000000000000e+00
0.000000000000000e+00
0.000000000000000e+00
0.000000000000000e+00
0.000000000000000e+00
0.000000000000000e+00
0.000000000000000e+00
0.000000000000000e+00
0.000000000000000e+00
0.000000000000000e+00
0.000000000000000e+00
0.000000000000000e+00
0.000000000000000e+00
0.000000000000000e+00
0.000000000000000e+00
0.000000000000000e+00
0.000000000000000e+00
0.000000000000000e+00
0.000000000000000e+00
0.000000000000000e+00
0.000000000000000e+00
0.000000000000000e+00
0.000000000000000e+00
0.000000000000000e+00
0.000000000000000e+00
0.000000000000000e+00
0.000000000000000e+00
0.000000000000000e+00
0.000000000000000e+00
0.000000000000000e+00
0.000000000000000e+00
0.000000000000000e+00
0.000000000000000e+00
0.000000000000000e+00
0.000000000000000e+00
0.000000000000000e+00
0.000000000000000e+00
0.000000000000000e+00
0.000000000000000e+00
0.000000000000000e+00
0.000000000000000e+00
0.000000000000000e+00
0.000000000000000e+00
0.000000000000000e+00
0.000000000000000e+00
0.000000000000000e+00
0.000000000000000e+00
0.000000000000000e+00
0.000000000000000e+00
0.000000000000000e+00
0.000000000000000e+00
0.000000000000000e+00
0.000000000000000e+00
0.000000000000000e+00
0.000000000000000e+00
0.000000000000000e+00
0.000000000000000e+00
0.000000000000000e+00
0.000000000000000e+00
0.000000000000000e+00
0.000000000000000e+00
0.000000000000000e+00
0.000000000000000e+00
0.000000000000000e+00
0.000000000000000e+00
0.000000000000000e+00
0.000000000000000e+00
0.000000000000000e+00
0.000000000000000e+00
0.000000000000000e+00
0.000000000000000e+00
0.000000000000000e+00
0.000000000000000e+00
0.000000000000000e+00
0.000000000000000e+00
0.000000000000000e+00
0.000000000000000e+00
0.000000000000000e+00
0.000000000000000e+00
0.000000000000000e+00
0.000000000000000e+00
0.000000000000000e+00
0.000000000000000e+00
0.000000000000000e+00
0.000000000000000e+00
0.000000000000000e+00
0.000000000000000e+00
0.000000000000000e+00
0.000000000000000e+00
0.000000000000000e+00
0.000000000000000e+00
0.000000000000000e+00
0.000000000000000e+00
0.000000000000000e+00
0.000000000000000e+00
0.000000000000000e+00
0.000000000000000e+00
0.000000000000000e+00
0.000000000000000e+00
0.000000000000000e+00
0.000000000000000e+00
0.000000000000000e+00
0.000000000000000e+00
0.000000000000000e+00
0.000000000000000e+00
0.000000000000000e+00
0.000000000000000e+00
0.000000000000000e+00
0.000000000000000e+00
0.000000000000000e+00
0.000000000000000e+00
0.000000000000000e+00
0.000000000000000e+00
0.000000000000000e+00
0.000000000000000e+00
0.000000000000000e+00
0.000000000000000e+00
0.000000000000000e+00
0.000000000000000e+00
0.000000000000000e+00
0.000000000000000e+00
0.000000000000000e+00
0.000000000000000e+00
0.000000000000000e+00
0.000000000000000e+00
0.000000000000000e+00
)
END
