HEADER
"PSFversion" "1.00"
"Time Stamp" "Dec  4 11:30:49 2023"
TYPE
"variable" STRUCT(
"value" FLOAT DOUBLE
) PROP( "key" "element" )
VALUE
"vgs" "variable" ( 2 ) PROP( )
"temp" "variable" ( 27 ) PROP( )
END
