HEADER
"PSFversion" "1.00"
"design" "(\"mylib\" \"op_test\" \"schematic\" \"\")"
"simulator" "spectre"
"temperature" "27"
"host" ""
"date" "Jan  4 11:17:45 2024"
"title" ""
"analysisList" "()"
END
