HEADER
"PSFversion" "1.00"
"design" "(\"mylib\" \"op_test\" \"schematic\" \"\")"
"simulator" "spectre"
"temperature" "27"
"host" ""
"date" "Dec 26 00:34:13 2023"
"title" ""
"analysisList" "()"
END
