HEADER
"PSFversion" "1.00"
"Time Stamp" "Jan  4 11:17:45 2024"
TYPE
"variable" STRUCT(
"value" FLOAT DOUBLE
) PROP( "key" "element" )
VALUE
"vcom" "variable" ( 1.6 ) PROP( )
"vac" "variable" ( 1 ) PROP( )
"temp" "variable" ( 27 ) PROP( )
END
