HEADER
"PSFversion" "1.00"
"Time Stamp" "Dec 26 00:34:13 2023"
TYPE
"variable" STRUCT(
"value" FLOAT DOUBLE
) PROP( "key" "element" )
VALUE
"vcom" "variable" ( 1.2 ) PROP( )
"vac" "variable" ( 100e-3 ) PROP( )
"temp" "variable" ( 27 ) PROP( )
END
