HEADER
"PSFversion" "1.00"
"Log Generator" "drlLog rev. 1.0"
"Log Time Stamp" "Mon Dec  4 00:33:34 2023"
"psfversion" "1.1.0"
"simulator" "spectre"
"version" "20.1.0.298.isr9"
"date" "12:33:34 AM, Mon Dec 4, 2023"
"design" "// Generated for: spectre"
"signalNameType" "spectre"
"simMode" "Spectre"
"measdgt" 0
"ingold" 2
"sst2usecolon" 0
TYPE
"analysisInst" STRUCT(
"analysisType" STRING *
"dataFile" STRING *
"format" STRING *
"parent" STRING *
"sweepVariable" ARRAY ( * ) STRING *
"description" STRING *
)
VALUE
"dcOp-dc" "analysisInst" (
"dc"
"dcOp.dc"
"PSF"
""
()
"DC Analysis `dcOp'"
) PROP(
"data_type" "scalar"
)

"dcOpInfo-info" "analysisInst" (
"info"
"dcOpInfo.info"
"PSF"
""
()
"Circuit Information"
) PROP(
"data_type" "struct"
)

"dc-dc" "analysisInst" (
"dc"
"dc.dc"
"PSF"
""
("vin")
"DC Analysis `dc': vin = (0 -> 1.8)"
) PROP(
"data_type" "scalar"
)

"dc-0-info" "analysisInst" (
"info"
"dc-0.info"
"PSF"
""
()
"Circuit Information"
) PROP(
"data_type" "struct"
)

"dc-1-info" "analysisInst" (
"info"
"dc-1.info"
"PSF"
""
()
"Circuit Information"
) PROP(
"data_type" "struct"
)

"dc-2-info" "analysisInst" (
"info"
"dc-2.info"
"PSF"
""
()
"Circuit Information"
) PROP(
"data_type" "struct"
)

"dc-3-info" "analysisInst" (
"info"
"dc-3.info"
"PSF"
""
()
"Circuit Information"
) PROP(
"data_type" "struct"
)

"dc-4-info" "analysisInst" (
"info"
"dc-4.info"
"PSF"
""
()
"Circuit Information"
) PROP(
"data_type" "struct"
)

"dc-5-info" "analysisInst" (
"info"
"dc-5.info"
"PSF"
""
()
"Circuit Information"
) PROP(
"data_type" "struct"
)

"dc-6-info" "analysisInst" (
"info"
"dc-6.info"
"PSF"
""
()
"Circuit Information"
) PROP(
"data_type" "struct"
)

"dc-7-info" "analysisInst" (
"info"
"dc-7.info"
"PSF"
""
()
"Circuit Information"
) PROP(
"data_type" "struct"
)

"dc-8-info" "analysisInst" (
"info"
"dc-8.info"
"PSF"
""
()
"Circuit Information"
) PROP(
"data_type" "struct"
)

"dc-9-info" "analysisInst" (
"info"
"dc-9.info"
"PSF"
""
()
"Circuit Information"
) PROP(
"data_type" "struct"
)

"dc-10-info" "analysisInst" (
"info"
"dc-10.info"
"PSF"
""
()
"Circuit Information"
) PROP(
"data_type" "struct"
)

"dc-11-info" "analysisInst" (
"info"
"dc-11.info"
"PSF"
""
()
"Circuit Information"
) PROP(
"data_type" "struct"
)

"dc-12-info" "analysisInst" (
"info"
"dc-12.info"
"PSF"
""
()
"Circuit Information"
) PROP(
"data_type" "struct"
)

"dc-13-info" "analysisInst" (
"info"
"dc-13.info"
"PSF"
""
()
"Circuit Information"
) PROP(
"data_type" "struct"
)

"dc-14-info" "analysisInst" (
"info"
"dc-14.info"
"PSF"
""
()
"Circuit Information"
) PROP(
"data_type" "struct"
)

"dc-15-info" "analysisInst" (
"info"
"dc-15.info"
"PSF"
""
()
"Circuit Information"
) PROP(
"data_type" "struct"
)

"dc-16-info" "analysisInst" (
"info"
"dc-16.info"
"PSF"
""
()
"Circuit Information"
) PROP(
"data_type" "struct"
)

"dc-17-info" "analysisInst" (
"info"
"dc-17.info"
"PSF"
""
()
"Circuit Information"
) PROP(
"data_type" "struct"
)

"dc-18-info" "analysisInst" (
"info"
"dc-18.info"
"PSF"
""
()
"Circuit Information"
) PROP(
"data_type" "struct"
)

"dc-19-info" "analysisInst" (
"info"
"dc-19.info"
"PSF"
""
()
"Circuit Information"
) PROP(
"data_type" "struct"
)

"dc-20-info" "analysisInst" (
"info"
"dc-20.info"
"PSF"
""
()
"Circuit Information"
) PROP(
"data_type" "struct"
)

"dc-21-info" "analysisInst" (
"info"
"dc-21.info"
"PSF"
""
()
"Circuit Information"
) PROP(
"data_type" "struct"
)

"dc-22-info" "analysisInst" (
"info"
"dc-22.info"
"PSF"
""
()
"Circuit Information"
) PROP(
"data_type" "struct"
)

"dc-23-info" "analysisInst" (
"info"
"dc-23.info"
"PSF"
""
()
"Circuit Information"
) PROP(
"data_type" "struct"
)

"dc-24-info" "analysisInst" (
"info"
"dc-24.info"
"PSF"
""
()
"Circuit Information"
) PROP(
"data_type" "struct"
)

"dc-25-info" "analysisInst" (
"info"
"dc-25.info"
"PSF"
""
()
"Circuit Information"
) PROP(
"data_type" "struct"
)

"dc-26-info" "analysisInst" (
"info"
"dc-26.info"
"PSF"
""
()
"Circuit Information"
) PROP(
"data_type" "struct"
)

"dc-27-info" "analysisInst" (
"info"
"dc-27.info"
"PSF"
""
()
"Circuit Information"
) PROP(
"data_type" "struct"
)

"dc-28-info" "analysisInst" (
"info"
"dc-28.info"
"PSF"
""
()
"Circuit Information"
) PROP(
"data_type" "struct"
)

"dc-29-info" "analysisInst" (
"info"
"dc-29.info"
"PSF"
""
()
"Circuit Information"
) PROP(
"data_type" "struct"
)

"dc-30-info" "analysisInst" (
"info"
"dc-30.info"
"PSF"
""
()
"Circuit Information"
) PROP(
"data_type" "struct"
)

"dc-31-info" "analysisInst" (
"info"
"dc-31.info"
"PSF"
""
()
"Circuit Information"
) PROP(
"data_type" "struct"
)

"dc-32-info" "analysisInst" (
"info"
"dc-32.info"
"PSF"
""
()
"Circuit Information"
) PROP(
"data_type" "struct"
)

"dc-33-info" "analysisInst" (
"info"
"dc-33.info"
"PSF"
""
()
"Circuit Information"
) PROP(
"data_type" "struct"
)

"dc-34-info" "analysisInst" (
"info"
"dc-34.info"
"PSF"
""
()
"Circuit Information"
) PROP(
"data_type" "struct"
)

"dc-35-info" "analysisInst" (
"info"
"dc-35.info"
"PSF"
""
()
"Circuit Information"
) PROP(
"data_type" "struct"
)

"dc-36-info" "analysisInst" (
"info"
"dc-36.info"
"PSF"
""
()
"Circuit Information"
) PROP(
"data_type" "struct"
)

"dc-37-info" "analysisInst" (
"info"
"dc-37.info"
"PSF"
""
()
"Circuit Information"
) PROP(
"data_type" "struct"
)

"dc-38-info" "analysisInst" (
"info"
"dc-38.info"
"PSF"
""
()
"Circuit Information"
) PROP(
"data_type" "struct"
)

"dc-39-info" "analysisInst" (
"info"
"dc-39.info"
"PSF"
""
()
"Circuit Information"
) PROP(
"data_type" "struct"
)

"dc-40-info" "analysisInst" (
"info"
"dc-40.info"
"PSF"
""
()
"Circuit Information"
) PROP(
"data_type" "struct"
)

"dc-41-info" "analysisInst" (
"info"
"dc-41.info"
"PSF"
""
()
"Circuit Information"
) PROP(
"data_type" "struct"
)

"dc-42-info" "analysisInst" (
"info"
"dc-42.info"
"PSF"
""
()
"Circuit Information"
) PROP(
"data_type" "struct"
)

"dc-43-info" "analysisInst" (
"info"
"dc-43.info"
"PSF"
""
()
"Circuit Information"
) PROP(
"data_type" "struct"
)

"dc-44-info" "analysisInst" (
"info"
"dc-44.info"
"PSF"
""
()
"Circuit Information"
) PROP(
"data_type" "struct"
)

"dc-45-info" "analysisInst" (
"info"
"dc-45.info"
"PSF"
""
()
"Circuit Information"
) PROP(
"data_type" "struct"
)

"dc-46-info" "analysisInst" (
"info"
"dc-46.info"
"PSF"
""
()
"Circuit Information"
) PROP(
"data_type" "struct"
)

"dc-47-info" "analysisInst" (
"info"
"dc-47.info"
"PSF"
""
()
"Circuit Information"
) PROP(
"data_type" "struct"
)

"dc-48-info" "analysisInst" (
"info"
"dc-48.info"
"PSF"
""
()
"Circuit Information"
) PROP(
"data_type" "struct"
)

"dc-49-info" "analysisInst" (
"info"
"dc-49.info"
"PSF"
""
()
"Circuit Information"
) PROP(
"data_type" "struct"
)

"dc-50-info" "analysisInst" (
"info"
"dc-50.info"
"PSF"
""
()
"Circuit Information"
) PROP(
"data_type" "struct"
)

"dc-51-info" "analysisInst" (
"info"
"dc-51.info"
"PSF"
""
()
"Circuit Information"
) PROP(
"data_type" "struct"
)

"dc-52-info" "analysisInst" (
"info"
"dc-52.info"
"PSF"
""
()
"Circuit Information"
) PROP(
"data_type" "struct"
)

"dc-53-info" "analysisInst" (
"info"
"dc-53.info"
"PSF"
""
()
"Circuit Information"
) PROP(
"data_type" "struct"
)

"dc-54-info" "analysisInst" (
"info"
"dc-54.info"
"PSF"
""
()
"Circuit Information"
) PROP(
"data_type" "struct"
)

"dc-55-info" "analysisInst" (
"info"
"dc-55.info"
"PSF"
""
()
"Circuit Information"
) PROP(
"data_type" "struct"
)

"dc-56-info" "analysisInst" (
"info"
"dc-56.info"
"PSF"
""
()
"Circuit Information"
) PROP(
"data_type" "struct"
)

"dc-57-info" "analysisInst" (
"info"
"dc-57.info"
"PSF"
""
()
"Circuit Information"
) PROP(
"data_type" "struct"
)

"dc-58-info" "analysisInst" (
"info"
"dc-58.info"
"PSF"
""
()
"Circuit Information"
) PROP(
"data_type" "struct"
)

"dc-59-info" "analysisInst" (
"info"
"dc-59.info"
"PSF"
""
()
"Circuit Information"
) PROP(
"data_type" "struct"
)

"dc-60-info" "analysisInst" (
"info"
"dc-60.info"
"PSF"
""
()
"Circuit Information"
) PROP(
"data_type" "struct"
)

"dc-61-info" "analysisInst" (
"info"
"dc-61.info"
"PSF"
""
()
"Circuit Information"
) PROP(
"data_type" "struct"
)

"dc-62-info" "analysisInst" (
"info"
"dc-62.info"
"PSF"
""
()
"Circuit Information"
) PROP(
"data_type" "struct"
)

"dc-63-info" "analysisInst" (
"info"
"dc-63.info"
"PSF"
""
()
"Circuit Information"
) PROP(
"data_type" "struct"
)

"dc-64-info" "analysisInst" (
"info"
"dc-64.info"
"PSF"
""
()
"Circuit Information"
) PROP(
"data_type" "struct"
)

"dc-65-info" "analysisInst" (
"info"
"dc-65.info"
"PSF"
""
()
"Circuit Information"
) PROP(
"data_type" "struct"
)

"dc-66-info" "analysisInst" (
"info"
"dc-66.info"
"PSF"
""
()
"Circuit Information"
) PROP(
"data_type" "struct"
)

"dc-67-info" "analysisInst" (
"info"
"dc-67.info"
"PSF"
""
()
"Circuit Information"
) PROP(
"data_type" "struct"
)

"dc-68-info" "analysisInst" (
"info"
"dc-68.info"
"PSF"
""
()
"Circuit Information"
) PROP(
"data_type" "struct"
)

"dc-69-info" "analysisInst" (
"info"
"dc-69.info"
"PSF"
""
()
"Circuit Information"
) PROP(
"data_type" "struct"
)

"dc-70-info" "analysisInst" (
"info"
"dc-70.info"
"PSF"
""
()
"Circuit Information"
) PROP(
"data_type" "struct"
)

"dc-71-info" "analysisInst" (
"info"
"dc-71.info"
"PSF"
""
()
"Circuit Information"
) PROP(
"data_type" "struct"
)

"dc-72-info" "analysisInst" (
"info"
"dc-72.info"
"PSF"
""
()
"Circuit Information"
) PROP(
"data_type" "struct"
)

"dc-73-info" "analysisInst" (
"info"
"dc-73.info"
"PSF"
""
()
"Circuit Information"
) PROP(
"data_type" "struct"
)

"dc-74-info" "analysisInst" (
"info"
"dc-74.info"
"PSF"
""
()
"Circuit Information"
) PROP(
"data_type" "struct"
)

"dc-75-info" "analysisInst" (
"info"
"dc-75.info"
"PSF"
""
()
"Circuit Information"
) PROP(
"data_type" "struct"
)

"dc-76-info" "analysisInst" (
"info"
"dc-76.info"
"PSF"
""
()
"Circuit Information"
) PROP(
"data_type" "struct"
)

"dc-77-info" "analysisInst" (
"info"
"dc-77.info"
"PSF"
""
()
"Circuit Information"
) PROP(
"data_type" "struct"
)

"dc-78-info" "analysisInst" (
"info"
"dc-78.info"
"PSF"
""
()
"Circuit Information"
) PROP(
"data_type" "struct"
)

"dc-79-info" "analysisInst" (
"info"
"dc-79.info"
"PSF"
""
()
"Circuit Information"
) PROP(
"data_type" "struct"
)

"dc-80-info" "analysisInst" (
"info"
"dc-80.info"
"PSF"
""
()
"Circuit Information"
) PROP(
"data_type" "struct"
)

"dc-81-info" "analysisInst" (
"info"
"dc-81.info"
"PSF"
""
()
"Circuit Information"
) PROP(
"data_type" "struct"
)

"dc-82-info" "analysisInst" (
"info"
"dc-82.info"
"PSF"
""
()
"Circuit Information"
) PROP(
"data_type" "struct"
)

"dc-83-info" "analysisInst" (
"info"
"dc-83.info"
"PSF"
""
()
"Circuit Information"
) PROP(
"data_type" "struct"
)

"dc-84-info" "analysisInst" (
"info"
"dc-84.info"
"PSF"
""
()
"Circuit Information"
) PROP(
"data_type" "struct"
)

"dc-85-info" "analysisInst" (
"info"
"dc-85.info"
"PSF"
""
()
"Circuit Information"
) PROP(
"data_type" "struct"
)

"dc-86-info" "analysisInst" (
"info"
"dc-86.info"
"PSF"
""
()
"Circuit Information"
) PROP(
"data_type" "struct"
)

"dc-87-info" "analysisInst" (
"info"
"dc-87.info"
"PSF"
""
()
"Circuit Information"
) PROP(
"data_type" "struct"
)

"dc-88-info" "analysisInst" (
"info"
"dc-88.info"
"PSF"
""
()
"Circuit Information"
) PROP(
"data_type" "struct"
)

"dc-89-info" "analysisInst" (
"info"
"dc-89.info"
"PSF"
""
()
"Circuit Information"
) PROP(
"data_type" "struct"
)

"dc-90-info" "analysisInst" (
"info"
"dc-90.info"
"PSF"
""
()
"Circuit Information"
) PROP(
"data_type" "struct"
)

"dc-91-info" "analysisInst" (
"info"
"dc-91.info"
"PSF"
""
()
"Circuit Information"
) PROP(
"data_type" "struct"
)

"dc-92-info" "analysisInst" (
"info"
"dc-92.info"
"PSF"
""
()
"Circuit Information"
) PROP(
"data_type" "struct"
)

"dc-93-info" "analysisInst" (
"info"
"dc-93.info"
"PSF"
""
()
"Circuit Information"
) PROP(
"data_type" "struct"
)

"dc-94-info" "analysisInst" (
"info"
"dc-94.info"
"PSF"
""
()
"Circuit Information"
) PROP(
"data_type" "struct"
)

"dc-95-info" "analysisInst" (
"info"
"dc-95.info"
"PSF"
""
()
"Circuit Information"
) PROP(
"data_type" "struct"
)

"dc-96-info" "analysisInst" (
"info"
"dc-96.info"
"PSF"
""
()
"Circuit Information"
) PROP(
"data_type" "struct"
)

"dc-97-info" "analysisInst" (
"info"
"dc-97.info"
"PSF"
""
()
"Circuit Information"
) PROP(
"data_type" "struct"
)

"dc-98-info" "analysisInst" (
"info"
"dc-98.info"
"PSF"
""
()
"Circuit Information"
) PROP(
"data_type" "struct"
)

"dc-99-info" "analysisInst" (
"info"
"dc-99.info"
"PSF"
""
()
"Circuit Information"
) PROP(
"data_type" "struct"
)

"dc-100-info" "analysisInst" (
"info"
"dc-100.info"
"PSF"
""
()
"Circuit Information"
) PROP(
"data_type" "struct"
)

"dc-101-info" "analysisInst" (
"info"
"dc-101.info"
"PSF"
""
()
"Circuit Information"
) PROP(
"data_type" "struct"
)

"dc-102-info" "analysisInst" (
"info"
"dc-102.info"
"PSF"
""
()
"Circuit Information"
) PROP(
"data_type" "struct"
)

"dc-103-info" "analysisInst" (
"info"
"dc-103.info"
"PSF"
""
()
"Circuit Information"
) PROP(
"data_type" "struct"
)

"dc-104-info" "analysisInst" (
"info"
"dc-104.info"
"PSF"
""
()
"Circuit Information"
) PROP(
"data_type" "struct"
)

"dc-105-info" "analysisInst" (
"info"
"dc-105.info"
"PSF"
""
()
"Circuit Information"
) PROP(
"data_type" "struct"
)

"dc-106-info" "analysisInst" (
"info"
"dc-106.info"
"PSF"
""
()
"Circuit Information"
) PROP(
"data_type" "struct"
)

"dc-107-info" "analysisInst" (
"info"
"dc-107.info"
"PSF"
""
()
"Circuit Information"
) PROP(
"data_type" "struct"
)

"dc-108-info" "analysisInst" (
"info"
"dc-108.info"
"PSF"
""
()
"Circuit Information"
) PROP(
"data_type" "struct"
)

"dc-109-info" "analysisInst" (
"info"
"dc-109.info"
"PSF"
""
()
"Circuit Information"
) PROP(
"data_type" "struct"
)

"dc-110-info" "analysisInst" (
"info"
"dc-110.info"
"PSF"
""
()
"Circuit Information"
) PROP(
"data_type" "struct"
)

"dc-111-info" "analysisInst" (
"info"
"dc-111.info"
"PSF"
""
()
"Circuit Information"
) PROP(
"data_type" "struct"
)

"dc-112-info" "analysisInst" (
"info"
"dc-112.info"
"PSF"
""
()
"Circuit Information"
) PROP(
"data_type" "struct"
)

"dc-113-info" "analysisInst" (
"info"
"dc-113.info"
"PSF"
""
()
"Circuit Information"
) PROP(
"data_type" "struct"
)

"dc-114-info" "analysisInst" (
"info"
"dc-114.info"
"PSF"
""
()
"Circuit Information"
) PROP(
"data_type" "struct"
)

"dc-115-info" "analysisInst" (
"info"
"dc-115.info"
"PSF"
""
()
"Circuit Information"
) PROP(
"data_type" "struct"
)

"dc-116-info" "analysisInst" (
"info"
"dc-116.info"
"PSF"
""
()
"Circuit Information"
) PROP(
"data_type" "struct"
)

"dc-117-info" "analysisInst" (
"info"
"dc-117.info"
"PSF"
""
()
"Circuit Information"
) PROP(
"data_type" "struct"
)

"dc-118-info" "analysisInst" (
"info"
"dc-118.info"
"PSF"
""
()
"Circuit Information"
) PROP(
"data_type" "struct"
)

"dc-119-info" "analysisInst" (
"info"
"dc-119.info"
"PSF"
""
()
"Circuit Information"
) PROP(
"data_type" "struct"
)

"dc-120-info" "analysisInst" (
"info"
"dc-120.info"
"PSF"
""
()
"Circuit Information"
) PROP(
"data_type" "struct"
)

"dc-121-info" "analysisInst" (
"info"
"dc-121.info"
"PSF"
""
()
"Circuit Information"
) PROP(
"data_type" "struct"
)

"dc-122-info" "analysisInst" (
"info"
"dc-122.info"
"PSF"
""
()
"Circuit Information"
) PROP(
"data_type" "struct"
)

"dc-123-info" "analysisInst" (
"info"
"dc-123.info"
"PSF"
""
()
"Circuit Information"
) PROP(
"data_type" "struct"
)

"dc-124-info" "analysisInst" (
"info"
"dc-124.info"
"PSF"
""
()
"Circuit Information"
) PROP(
"data_type" "struct"
)

"dc-125-info" "analysisInst" (
"info"
"dc-125.info"
"PSF"
""
()
"Circuit Information"
) PROP(
"data_type" "struct"
)

"dc-126-info" "analysisInst" (
"info"
"dc-126.info"
"PSF"
""
()
"Circuit Information"
) PROP(
"data_type" "struct"
)

"dc-127-info" "analysisInst" (
"info"
"dc-127.info"
"PSF"
""
()
"Circuit Information"
) PROP(
"data_type" "struct"
)

"dc-128-info" "analysisInst" (
"info"
"dc-128.info"
"PSF"
""
()
"Circuit Information"
) PROP(
"data_type" "struct"
)

"dc-129-info" "analysisInst" (
"info"
"dc-129.info"
"PSF"
""
()
"Circuit Information"
) PROP(
"data_type" "struct"
)

"dc-130-info" "analysisInst" (
"info"
"dc-130.info"
"PSF"
""
()
"Circuit Information"
) PROP(
"data_type" "struct"
)

"dc-131-info" "analysisInst" (
"info"
"dc-131.info"
"PSF"
""
()
"Circuit Information"
) PROP(
"data_type" "struct"
)

"dc-132-info" "analysisInst" (
"info"
"dc-132.info"
"PSF"
""
()
"Circuit Information"
) PROP(
"data_type" "struct"
)

"dc-133-info" "analysisInst" (
"info"
"dc-133.info"
"PSF"
""
()
"Circuit Information"
) PROP(
"data_type" "struct"
)

"dc-134-info" "analysisInst" (
"info"
"dc-134.info"
"PSF"
""
()
"Circuit Information"
) PROP(
"data_type" "struct"
)

"dc-135-info" "analysisInst" (
"info"
"dc-135.info"
"PSF"
""
()
"Circuit Information"
) PROP(
"data_type" "struct"
)

"dc-136-info" "analysisInst" (
"info"
"dc-136.info"
"PSF"
""
()
"Circuit Information"
) PROP(
"data_type" "struct"
)

"dc-137-info" "analysisInst" (
"info"
"dc-137.info"
"PSF"
""
()
"Circuit Information"
) PROP(
"data_type" "struct"
)

"dc-138-info" "analysisInst" (
"info"
"dc-138.info"
"PSF"
""
()
"Circuit Information"
) PROP(
"data_type" "struct"
)

"dc-139-info" "analysisInst" (
"info"
"dc-139.info"
"PSF"
""
()
"Circuit Information"
) PROP(
"data_type" "struct"
)

"dc-140-info" "analysisInst" (
"info"
"dc-140.info"
"PSF"
""
()
"Circuit Information"
) PROP(
"data_type" "struct"
)

"dc-141-info" "analysisInst" (
"info"
"dc-141.info"
"PSF"
""
()
"Circuit Information"
) PROP(
"data_type" "struct"
)

"dc-142-info" "analysisInst" (
"info"
"dc-142.info"
"PSF"
""
()
"Circuit Information"
) PROP(
"data_type" "struct"
)

"dc-143-info" "analysisInst" (
"info"
"dc-143.info"
"PSF"
""
()
"Circuit Information"
) PROP(
"data_type" "struct"
)

"dc-144-info" "analysisInst" (
"info"
"dc-144.info"
"PSF"
""
()
"Circuit Information"
) PROP(
"data_type" "struct"
)

"dc-145-info" "analysisInst" (
"info"
"dc-145.info"
"PSF"
""
()
"Circuit Information"
) PROP(
"data_type" "struct"
)

"dc-146-info" "analysisInst" (
"info"
"dc-146.info"
"PSF"
""
()
"Circuit Information"
) PROP(
"data_type" "struct"
)

"dc-147-info" "analysisInst" (
"info"
"dc-147.info"
"PSF"
""
()
"Circuit Information"
) PROP(
"data_type" "struct"
)

"dc-148-info" "analysisInst" (
"info"
"dc-148.info"
"PSF"
""
()
"Circuit Information"
) PROP(
"data_type" "struct"
)

"dc-149-info" "analysisInst" (
"info"
"dc-149.info"
"PSF"
""
()
"Circuit Information"
) PROP(
"data_type" "struct"
)

"dc-150-info" "analysisInst" (
"info"
"dc-150.info"
"PSF"
""
()
"Circuit Information"
) PROP(
"data_type" "struct"
)

"dc-151-info" "analysisInst" (
"info"
"dc-151.info"
"PSF"
""
()
"Circuit Information"
) PROP(
"data_type" "struct"
)

"dc-152-info" "analysisInst" (
"info"
"dc-152.info"
"PSF"
""
()
"Circuit Information"
) PROP(
"data_type" "struct"
)

"dc-153-info" "analysisInst" (
"info"
"dc-153.info"
"PSF"
""
()
"Circuit Information"
) PROP(
"data_type" "struct"
)

"dc-154-info" "analysisInst" (
"info"
"dc-154.info"
"PSF"
""
()
"Circuit Information"
) PROP(
"data_type" "struct"
)

"dc-155-info" "analysisInst" (
"info"
"dc-155.info"
"PSF"
""
()
"Circuit Information"
) PROP(
"data_type" "struct"
)

"dc-156-info" "analysisInst" (
"info"
"dc-156.info"
"PSF"
""
()
"Circuit Information"
) PROP(
"data_type" "struct"
)

"dc-157-info" "analysisInst" (
"info"
"dc-157.info"
"PSF"
""
()
"Circuit Information"
) PROP(
"data_type" "struct"
)

"dc-158-info" "analysisInst" (
"info"
"dc-158.info"
"PSF"
""
()
"Circuit Information"
) PROP(
"data_type" "struct"
)

"dc-159-info" "analysisInst" (
"info"
"dc-159.info"
"PSF"
""
()
"Circuit Information"
) PROP(
"data_type" "struct"
)

"dc-160-info" "analysisInst" (
"info"
"dc-160.info"
"PSF"
""
()
"Circuit Information"
) PROP(
"data_type" "struct"
)

"dc-161-info" "analysisInst" (
"info"
"dc-161.info"
"PSF"
""
()
"Circuit Information"
) PROP(
"data_type" "struct"
)

"dc-162-info" "analysisInst" (
"info"
"dc-162.info"
"PSF"
""
()
"Circuit Information"
) PROP(
"data_type" "struct"
)

"dc-163-info" "analysisInst" (
"info"
"dc-163.info"
"PSF"
""
()
"Circuit Information"
) PROP(
"data_type" "struct"
)

"dc-164-info" "analysisInst" (
"info"
"dc-164.info"
"PSF"
""
()
"Circuit Information"
) PROP(
"data_type" "struct"
)

"dc-165-info" "analysisInst" (
"info"
"dc-165.info"
"PSF"
""
()
"Circuit Information"
) PROP(
"data_type" "struct"
)

"dc-166-info" "analysisInst" (
"info"
"dc-166.info"
"PSF"
""
()
"Circuit Information"
) PROP(
"data_type" "struct"
)

"dc-167-info" "analysisInst" (
"info"
"dc-167.info"
"PSF"
""
()
"Circuit Information"
) PROP(
"data_type" "struct"
)

"dc-168-info" "analysisInst" (
"info"
"dc-168.info"
"PSF"
""
()
"Circuit Information"
) PROP(
"data_type" "struct"
)

"dc-169-info" "analysisInst" (
"info"
"dc-169.info"
"PSF"
""
()
"Circuit Information"
) PROP(
"data_type" "struct"
)

"dc-170-info" "analysisInst" (
"info"
"dc-170.info"
"PSF"
""
()
"Circuit Information"
) PROP(
"data_type" "struct"
)

"dc-171-info" "analysisInst" (
"info"
"dc-171.info"
"PSF"
""
()
"Circuit Information"
) PROP(
"data_type" "struct"
)

"dc-172-info" "analysisInst" (
"info"
"dc-172.info"
"PSF"
""
()
"Circuit Information"
) PROP(
"data_type" "struct"
)

"dc-173-info" "analysisInst" (
"info"
"dc-173.info"
"PSF"
""
()
"Circuit Information"
) PROP(
"data_type" "struct"
)

"dc-174-info" "analysisInst" (
"info"
"dc-174.info"
"PSF"
""
()
"Circuit Information"
) PROP(
"data_type" "struct"
)

"dc-175-info" "analysisInst" (
"info"
"dc-175.info"
"PSF"
""
()
"Circuit Information"
) PROP(
"data_type" "struct"
)

"dc-176-info" "analysisInst" (
"info"
"dc-176.info"
"PSF"
""
()
"Circuit Information"
) PROP(
"data_type" "struct"
)

"dc-177-info" "analysisInst" (
"info"
"dc-177.info"
"PSF"
""
()
"Circuit Information"
) PROP(
"data_type" "struct"
)

"dc-178-info" "analysisInst" (
"info"
"dc-178.info"
"PSF"
""
()
"Circuit Information"
) PROP(
"data_type" "struct"
)

"dc-179-info" "analysisInst" (
"info"
"dc-179.info"
"PSF"
""
()
"Circuit Information"
) PROP(
"data_type" "struct"
)

"dc-180-info" "analysisInst" (
"info"
"dc-180.info"
"PSF"
""
()
"Circuit Information"
) PROP(
"data_type" "struct"
)

"dc-181-info" "analysisInst" (
"info"
"dc-181.info"
"PSF"
""
()
"Circuit Information"
) PROP(
"data_type" "struct"
)

"dc-182-info" "analysisInst" (
"info"
"dc-182.info"
"PSF"
""
()
"Circuit Information"
) PROP(
"data_type" "struct"
)

"dc-183-info" "analysisInst" (
"info"
"dc-183.info"
"PSF"
""
()
"Circuit Information"
) PROP(
"data_type" "struct"
)

"dc-184-info" "analysisInst" (
"info"
"dc-184.info"
"PSF"
""
()
"Circuit Information"
) PROP(
"data_type" "struct"
)

"dc-185-info" "analysisInst" (
"info"
"dc-185.info"
"PSF"
""
()
"Circuit Information"
) PROP(
"data_type" "struct"
)

"dc-186-info" "analysisInst" (
"info"
"dc-186.info"
"PSF"
""
()
"Circuit Information"
) PROP(
"data_type" "struct"
)

"dc-187-info" "analysisInst" (
"info"
"dc-187.info"
"PSF"
""
()
"Circuit Information"
) PROP(
"data_type" "struct"
)

"dc-188-info" "analysisInst" (
"info"
"dc-188.info"
"PSF"
""
()
"Circuit Information"
) PROP(
"data_type" "struct"
)

"dc-189-info" "analysisInst" (
"info"
"dc-189.info"
"PSF"
""
()
"Circuit Information"
) PROP(
"data_type" "struct"
)

"dc-190-info" "analysisInst" (
"info"
"dc-190.info"
"PSF"
""
()
"Circuit Information"
) PROP(
"data_type" "struct"
)

"dc-191-info" "analysisInst" (
"info"
"dc-191.info"
"PSF"
""
()
"Circuit Information"
) PROP(
"data_type" "struct"
)

"dc-192-info" "analysisInst" (
"info"
"dc-192.info"
"PSF"
""
()
"Circuit Information"
) PROP(
"data_type" "struct"
)

"dc-193-info" "analysisInst" (
"info"
"dc-193.info"
"PSF"
""
()
"Circuit Information"
) PROP(
"data_type" "struct"
)

"dc-194-info" "analysisInst" (
"info"
"dc-194.info"
"PSF"
""
()
"Circuit Information"
) PROP(
"data_type" "struct"
)

"dc-195-info" "analysisInst" (
"info"
"dc-195.info"
"PSF"
""
()
"Circuit Information"
) PROP(
"data_type" "struct"
)

"dc-196-info" "analysisInst" (
"info"
"dc-196.info"
"PSF"
""
()
"Circuit Information"
) PROP(
"data_type" "struct"
)

"dc-197-info" "analysisInst" (
"info"
"dc-197.info"
"PSF"
""
()
"Circuit Information"
) PROP(
"data_type" "struct"
)

"dc-198-info" "analysisInst" (
"info"
"dc-198.info"
"PSF"
""
()
"Circuit Information"
) PROP(
"data_type" "struct"
)

"dc-199-info" "analysisInst" (
"info"
"dc-199.info"
"PSF"
""
()
"Circuit Information"
) PROP(
"data_type" "struct"
)

"dc-200-info" "analysisInst" (
"info"
"dc-200.info"
"PSF"
""
()
"Circuit Information"
) PROP(
"data_type" "struct"
)

"dc-201-info" "analysisInst" (
"info"
"dc-201.info"
"PSF"
""
()
"Circuit Information"
) PROP(
"data_type" "struct"
)

"dc-202-info" "analysisInst" (
"info"
"dc-202.info"
"PSF"
""
()
"Circuit Information"
) PROP(
"data_type" "struct"
)

"dc-203-info" "analysisInst" (
"info"
"dc-203.info"
"PSF"
""
()
"Circuit Information"
) PROP(
"data_type" "struct"
)

"dc-204-info" "analysisInst" (
"info"
"dc-204.info"
"PSF"
""
()
"Circuit Information"
) PROP(
"data_type" "struct"
)

"dc-205-info" "analysisInst" (
"info"
"dc-205.info"
"PSF"
""
()
"Circuit Information"
) PROP(
"data_type" "struct"
)

"dc-206-info" "analysisInst" (
"info"
"dc-206.info"
"PSF"
""
()
"Circuit Information"
) PROP(
"data_type" "struct"
)

"dc-207-info" "analysisInst" (
"info"
"dc-207.info"
"PSF"
""
()
"Circuit Information"
) PROP(
"data_type" "struct"
)

"dc-208-info" "analysisInst" (
"info"
"dc-208.info"
"PSF"
""
()
"Circuit Information"
) PROP(
"data_type" "struct"
)

"dc-209-info" "analysisInst" (
"info"
"dc-209.info"
"PSF"
""
()
"Circuit Information"
) PROP(
"data_type" "struct"
)

"dc-210-info" "analysisInst" (
"info"
"dc-210.info"
"PSF"
""
()
"Circuit Information"
) PROP(
"data_type" "struct"
)

"dc-211-info" "analysisInst" (
"info"
"dc-211.info"
"PSF"
""
()
"Circuit Information"
) PROP(
"data_type" "struct"
)

"dc-212-info" "analysisInst" (
"info"
"dc-212.info"
"PSF"
""
()
"Circuit Information"
) PROP(
"data_type" "struct"
)

"dc-213-info" "analysisInst" (
"info"
"dc-213.info"
"PSF"
""
()
"Circuit Information"
) PROP(
"data_type" "struct"
)

"dc-214-info" "analysisInst" (
"info"
"dc-214.info"
"PSF"
""
()
"Circuit Information"
) PROP(
"data_type" "struct"
)

"dc-215-info" "analysisInst" (
"info"
"dc-215.info"
"PSF"
""
()
"Circuit Information"
) PROP(
"data_type" "struct"
)

"dc-216-info" "analysisInst" (
"info"
"dc-216.info"
"PSF"
""
()
"Circuit Information"
) PROP(
"data_type" "struct"
)

"dc-217-info" "analysisInst" (
"info"
"dc-217.info"
"PSF"
""
()
"Circuit Information"
) PROP(
"data_type" "struct"
)

"dc-218-info" "analysisInst" (
"info"
"dc-218.info"
"PSF"
""
()
"Circuit Information"
) PROP(
"data_type" "struct"
)

"dc-219-info" "analysisInst" (
"info"
"dc-219.info"
"PSF"
""
()
"Circuit Information"
) PROP(
"data_type" "struct"
)

"dc-220-info" "analysisInst" (
"info"
"dc-220.info"
"PSF"
""
()
"Circuit Information"
) PROP(
"data_type" "struct"
)

"dc-221-info" "analysisInst" (
"info"
"dc-221.info"
"PSF"
""
()
"Circuit Information"
) PROP(
"data_type" "struct"
)

"dc-222-info" "analysisInst" (
"info"
"dc-222.info"
"PSF"
""
()
"Circuit Information"
) PROP(
"data_type" "struct"
)

"dc-223-info" "analysisInst" (
"info"
"dc-223.info"
"PSF"
""
()
"Circuit Information"
) PROP(
"data_type" "struct"
)

"dc-224-info" "analysisInst" (
"info"
"dc-224.info"
"PSF"
""
()
"Circuit Information"
) PROP(
"data_type" "struct"
)

"dc-225-info" "analysisInst" (
"info"
"dc-225.info"
"PSF"
""
()
"Circuit Information"
) PROP(
"data_type" "struct"
)

"dc-226-info" "analysisInst" (
"info"
"dc-226.info"
"PSF"
""
()
"Circuit Information"
) PROP(
"data_type" "struct"
)

"dc-227-info" "analysisInst" (
"info"
"dc-227.info"
"PSF"
""
()
"Circuit Information"
) PROP(
"data_type" "struct"
)

"dc-228-info" "analysisInst" (
"info"
"dc-228.info"
"PSF"
""
()
"Circuit Information"
) PROP(
"data_type" "struct"
)

"dc-229-info" "analysisInst" (
"info"
"dc-229.info"
"PSF"
""
()
"Circuit Information"
) PROP(
"data_type" "struct"
)

"dc-230-info" "analysisInst" (
"info"
"dc-230.info"
"PSF"
""
()
"Circuit Information"
) PROP(
"data_type" "struct"
)

"dc-231-info" "analysisInst" (
"info"
"dc-231.info"
"PSF"
""
()
"Circuit Information"
) PROP(
"data_type" "struct"
)

"dc-232-info" "analysisInst" (
"info"
"dc-232.info"
"PSF"
""
()
"Circuit Information"
) PROP(
"data_type" "struct"
)

"dc-233-info" "analysisInst" (
"info"
"dc-233.info"
"PSF"
""
()
"Circuit Information"
) PROP(
"data_type" "struct"
)

"dc-234-info" "analysisInst" (
"info"
"dc-234.info"
"PSF"
""
()
"Circuit Information"
) PROP(
"data_type" "struct"
)

"dc-235-info" "analysisInst" (
"info"
"dc-235.info"
"PSF"
""
()
"Circuit Information"
) PROP(
"data_type" "struct"
)

"dc-236-info" "analysisInst" (
"info"
"dc-236.info"
"PSF"
""
()
"Circuit Information"
) PROP(
"data_type" "struct"
)

"dc-237-info" "analysisInst" (
"info"
"dc-237.info"
"PSF"
""
()
"Circuit Information"
) PROP(
"data_type" "struct"
)

"dc-238-info" "analysisInst" (
"info"
"dc-238.info"
"PSF"
""
()
"Circuit Information"
) PROP(
"data_type" "struct"
)

"dc-239-info" "analysisInst" (
"info"
"dc-239.info"
"PSF"
""
()
"Circuit Information"
) PROP(
"data_type" "struct"
)

"dc-240-info" "analysisInst" (
"info"
"dc-240.info"
"PSF"
""
()
"Circuit Information"
) PROP(
"data_type" "struct"
)

"dc-241-info" "analysisInst" (
"info"
"dc-241.info"
"PSF"
""
()
"Circuit Information"
) PROP(
"data_type" "struct"
)

"dc-242-info" "analysisInst" (
"info"
"dc-242.info"
"PSF"
""
()
"Circuit Information"
) PROP(
"data_type" "struct"
)

"dc-243-info" "analysisInst" (
"info"
"dc-243.info"
"PSF"
""
()
"Circuit Information"
) PROP(
"data_type" "struct"
)

"dc-244-info" "analysisInst" (
"info"
"dc-244.info"
"PSF"
""
()
"Circuit Information"
) PROP(
"data_type" "struct"
)

"dc-245-info" "analysisInst" (
"info"
"dc-245.info"
"PSF"
""
()
"Circuit Information"
) PROP(
"data_type" "struct"
)

"dc-246-info" "analysisInst" (
"info"
"dc-246.info"
"PSF"
""
()
"Circuit Information"
) PROP(
"data_type" "struct"
)

"dc-247-info" "analysisInst" (
"info"
"dc-247.info"
"PSF"
""
()
"Circuit Information"
) PROP(
"data_type" "struct"
)

"dc-248-info" "analysisInst" (
"info"
"dc-248.info"
"PSF"
""
()
"Circuit Information"