HEADER
"PSFversion" "1.00"
"design" "(\"mylib\" \"inv_test\" \"schematic\" \"\")"
"simulator" "spectre"
"temperature" "27"
"host" ""
"date" "Dec  4 00:33:32 2023"
"title" ""
"analysisList" "()"
END
