HEADER
"PSFversion" "1.00"
"Time Stamp" "Dec  4 00:33:32 2023"
TYPE
"variable" STRUCT(
"value" FLOAT DOUBLE
) PROP( "key" "element" )
VALUE
"vin" "variable" ( 900e-3 ) PROP( )
"temp" "variable" ( 27 ) PROP( )
END
