HEADER
"PSFversion" "1.00"
"V2n" "analogLib_vsin_spectre"
"V1n V0n" "analogLib_vdc_spectre"
"I4n" "cascode_op"
"C0n" "analogLib_cap_spectre"
